+ 0.1 0 5 tcp 40 ------- 1 0.0 10.0 0 0
- 0.1 0 5 tcp 40 ------- 1 0.0 10.0 0 0
+ 0.1 1 6 tcp 40 ------- 2 1.0 10.1 0 1
- 0.1 1 6 tcp 40 ------- 2 1.0 10.1 0 1
+ 0.1 2 7 tcp 40 ------- 3 2.0 10.2 0 2
- 0.1 2 7 tcp 40 ------- 3 2.0 10.2 0 2
+ 0.1 3 8 tcp 40 ------- 4 3.0 10.3 0 3
- 0.1 3 8 tcp 40 ------- 4 3.0 10.3 0 3
+ 0.1 4 9 tcp 40 ------- 5 4.0 10.4 0 4
- 0.1 4 9 tcp 40 ------- 5 4.0 10.4 0 4
r 0.120064 0 5 tcp 40 ------- 1 0.0 10.0 0 0
+ 0.120064 5 6 tcp 40 ------- 1 0.0 10.0 0 0
- 0.120064 5 6 tcp 40 ------- 1 0.0 10.0 0 0
r 0.120064 1 6 tcp 40 ------- 2 1.0 10.1 0 1
+ 0.120064 6 7 tcp 40 ------- 2 1.0 10.1 0 1
- 0.120064 6 7 tcp 40 ------- 2 1.0 10.1 0 1
r 0.120064 2 7 tcp 40 ------- 3 2.0 10.2 0 2
+ 0.120064 7 8 tcp 40 ------- 3 2.0 10.2 0 2
- 0.120064 7 8 tcp 40 ------- 3 2.0 10.2 0 2
r 0.120064 3 8 tcp 40 ------- 4 3.0 10.3 0 3
+ 0.120064 8 9 tcp 40 ------- 4 3.0 10.3 0 3
- 0.120064 8 9 tcp 40 ------- 4 3.0 10.3 0 3
r 0.120064 4 9 tcp 40 ------- 5 4.0 10.4 0 4
+ 0.120064 9 10 tcp 40 ------- 5 4.0 10.4 0 4
- 0.120064 9 10 tcp 40 ------- 5 4.0 10.4 0 4
r 0.220704 5 6 tcp 40 ------- 1 0.0 10.0 0 0
+ 0.220704 6 7 tcp 40 ------- 1 0.0 10.0 0 0
- 0.220704 6 7 tcp 40 ------- 1 0.0 10.0 0 0
r 0.220704 6 7 tcp 40 ------- 2 1.0 10.1 0 1
+ 0.220704 7 8 tcp 40 ------- 2 1.0 10.1 0 1
- 0.220704 7 8 tcp 40 ------- 2 1.0 10.1 0 1
r 0.220704 7 8 tcp 40 ------- 3 2.0 10.2 0 2
+ 0.220704 8 9 tcp 40 ------- 3 2.0 10.2 0 2
- 0.220704 8 9 tcp 40 ------- 3 2.0 10.2 0 2
r 0.220704 8 9 tcp 40 ------- 4 3.0 10.3 0 3
+ 0.220704 9 10 tcp 40 ------- 4 3.0 10.3 0 3
- 0.220704 9 10 tcp 40 ------- 4 3.0 10.3 0 3
r 0.220704 9 10 tcp 40 ------- 5 4.0 10.4 0 4
+ 0.220704 10 9 ack 40 ------- 5 10.4 4.0 0 5
- 0.220704 10 9 ack 40 ------- 5 10.4 4.0 0 5
r 0.321344 6 7 tcp 40 ------- 1 0.0 10.0 0 0
+ 0.321344 7 8 tcp 40 ------- 1 0.0 10.0 0 0
- 0.321344 7 8 tcp 40 ------- 1 0.0 10.0 0 0
r 0.321344 7 8 tcp 40 ------- 2 1.0 10.1 0 1
+ 0.321344 8 9 tcp 40 ------- 2 1.0 10.1 0 1
- 0.321344 8 9 tcp 40 ------- 2 1.0 10.1 0 1
r 0.321344 8 9 tcp 40 ------- 3 2.0 10.2 0 2
+ 0.321344 9 10 tcp 40 ------- 3 2.0 10.2 0 2
- 0.321344 9 10 tcp 40 ------- 3 2.0 10.2 0 2
r 0.321344 9 10 tcp 40 ------- 4 3.0 10.3 0 3
+ 0.321344 10 9 ack 40 ------- 4 10.3 3.0 0 6
- 0.321344 10 9 ack 40 ------- 4 10.3 3.0 0 6
r 0.321344 10 9 ack 40 ------- 5 10.4 4.0 0 5
+ 0.321344 9 4 ack 40 ------- 5 10.4 4.0 0 5
- 0.321344 9 4 ack 40 ------- 5 10.4 4.0 0 5
r 0.341408 9 4 ack 40 ------- 5 10.4 4.0 0 5
+ 0.341408 4 9 tcp 1040 ------- 5 4.0 10.4 1 7
- 0.341408 4 9 tcp 1040 ------- 5 4.0 10.4 1 7
+ 0.341408 4 9 tcp 1040 ------- 5 4.0 10.4 2 8
- 0.343072 4 9 tcp 1040 ------- 5 4.0 10.4 2 8
r 0.363072 4 9 tcp 1040 ------- 5 4.0 10.4 1 7
+ 0.363072 9 10 tcp 1040 ------- 5 4.0 10.4 1 7
- 0.363072 9 10 tcp 1040 ------- 5 4.0 10.4 1 7
r 0.364736 4 9 tcp 1040 ------- 5 4.0 10.4 2 8
+ 0.364736 9 10 tcp 1040 ------- 5 4.0 10.4 2 8
- 0.379712 9 10 tcp 1040 ------- 5 4.0 10.4 2 8
r 0.421984 7 8 tcp 40 ------- 1 0.0 10.0 0 0
+ 0.421984 8 9 tcp 40 ------- 1 0.0 10.0 0 0
- 0.421984 8 9 tcp 40 ------- 1 0.0 10.0 0 0
r 0.421984 8 9 tcp 40 ------- 2 1.0 10.1 0 1
+ 0.421984 9 10 tcp 40 ------- 2 1.0 10.1 0 1
- 0.421984 9 10 tcp 40 ------- 2 1.0 10.1 0 1
r 0.421984 9 10 tcp 40 ------- 3 2.0 10.2 0 2
+ 0.421984 10 9 ack 40 ------- 3 10.2 2.0 0 9
- 0.421984 10 9 ack 40 ------- 3 10.2 2.0 0 9
r 0.421984 10 9 ack 40 ------- 4 10.3 3.0 0 6
+ 0.421984 9 8 ack 40 ------- 4 10.3 3.0 0 6
- 0.421984 9 8 ack 40 ------- 4 10.3 3.0 0 6
r 0.479712 9 10 tcp 1040 ------- 5 4.0 10.4 1 7
+ 0.479712 10 9 ack 40 ------- 5 10.4 4.0 1 10
- 0.479712 10 9 ack 40 ------- 5 10.4 4.0 1 10
r 0.496352 9 10 tcp 1040 ------- 5 4.0 10.4 2 8
+ 0.496352 10 9 ack 40 ------- 5 10.4 4.0 2 11
- 0.496352 10 9 ack 40 ------- 5 10.4 4.0 2 11
r 0.522624 8 9 tcp 40 ------- 1 0.0 10.0 0 0
+ 0.522624 9 10 tcp 40 ------- 1 0.0 10.0 0 0
- 0.522624 9 10 tcp 40 ------- 1 0.0 10.0 0 0
r 0.522624 9 10 tcp 40 ------- 2 1.0 10.1 0 1
+ 0.522624 10 9 ack 40 ------- 2 10.1 1.0 0 12
- 0.522624 10 9 ack 40 ------- 2 10.1 1.0 0 12
r 0.522624 10 9 ack 40 ------- 3 10.2 2.0 0 9
+ 0.522624 9 8 ack 40 ------- 3 10.2 2.0 0 9
- 0.522624 9 8 ack 40 ------- 3 10.2 2.0 0 9
r 0.522624 9 8 ack 40 ------- 4 10.3 3.0 0 6
+ 0.522624 8 3 ack 40 ------- 4 10.3 3.0 0 6
- 0.522624 8 3 ack 40 ------- 4 10.3 3.0 0 6
r 0.542688 8 3 ack 40 ------- 4 10.3 3.0 0 6
+ 0.542688 3 8 tcp 1040 ------- 4 3.0 10.3 1 13
- 0.542688 3 8 tcp 1040 ------- 4 3.0 10.3 1 13
+ 0.542688 3 8 tcp 1040 ------- 4 3.0 10.3 2 14
- 0.544352 3 8 tcp 1040 ------- 4 3.0 10.3 2 14
r 0.564352 3 8 tcp 1040 ------- 4 3.0 10.3 1 13
+ 0.564352 8 9 tcp 1040 ------- 4 3.0 10.3 1 13
- 0.564352 8 9 tcp 1040 ------- 4 3.0 10.3 1 13
r 0.566016 3 8 tcp 1040 ------- 4 3.0 10.3 2 14
+ 0.566016 8 9 tcp 1040 ------- 4 3.0 10.3 2 14
r 0.580352 10 9 ack 40 ------- 5 10.4 4.0 1 10
+ 0.580352 9 4 ack 40 ------- 5 10.4 4.0 1 10
- 0.580352 9 4 ack 40 ------- 5 10.4 4.0 1 10
- 0.580992 8 9 tcp 1040 ------- 4 3.0 10.3 2 14
r 0.596992 10 9 ack 40 ------- 5 10.4 4.0 2 11
+ 0.596992 9 4 ack 40 ------- 5 10.4 4.0 2 11
- 0.596992 9 4 ack 40 ------- 5 10.4 4.0 2 11
r 0.600416 9 4 ack 40 ------- 5 10.4 4.0 1 10
+ 0.600416 4 9 tcp 1040 ------- 5 4.0 10.4 3 15
- 0.600416 4 9 tcp 1040 ------- 5 4.0 10.4 3 15
+ 0.600416 4 9 tcp 1040 ------- 5 4.0 10.4 4 16
- 0.60208 4 9 tcp 1040 ------- 5 4.0 10.4 4 16
r 0.617056 9 4 ack 40 ------- 5 10.4 4.0 2 11
+ 0.617056 4 9 tcp 1040 ------- 5 4.0 10.4 5 17
- 0.617056 4 9 tcp 1040 ------- 5 4.0 10.4 5 17
+ 0.617056 4 9 tcp 1040 ------- 5 4.0 10.4 6 18
- 0.61872 4 9 tcp 1040 ------- 5 4.0 10.4 6 18
r 0.62208 4 9 tcp 1040 ------- 5 4.0 10.4 3 15
+ 0.62208 9 10 tcp 1040 ------- 5 4.0 10.4 3 15
- 0.62208 9 10 tcp 1040 ------- 5 4.0 10.4 3 15
r 0.623264 9 10 tcp 40 ------- 1 0.0 10.0 0 0
+ 0.623264 10 9 ack 40 ------- 1 10.0 0.0 0 19
- 0.623264 10 9 ack 40 ------- 1 10.0 0.0 0 19
r 0.623264 10 9 ack 40 ------- 2 10.1 1.0 0 12
+ 0.623264 9 8 ack 40 ------- 2 10.1 1.0 0 12
- 0.623264 9 8 ack 40 ------- 2 10.1 1.0 0 12
r 0.623264 9 8 ack 40 ------- 3 10.2 2.0 0 9
+ 0.623264 8 7 ack 40 ------- 3 10.2 2.0 0 9
- 0.623264 8 7 ack 40 ------- 3 10.2 2.0 0 9
r 0.623744 4 9 tcp 1040 ------- 5 4.0 10.4 4 16
+ 0.623744 9 10 tcp 1040 ------- 5 4.0 10.4 4 16
r 0.63872 4 9 tcp 1040 ------- 5 4.0 10.4 5 17
+ 0.63872 9 10 tcp 1040 ------- 5 4.0 10.4 5 17
- 0.63872 9 10 tcp 1040 ------- 5 4.0 10.4 4 16
r 0.640384 4 9 tcp 1040 ------- 5 4.0 10.4 6 18
+ 0.640384 9 10 tcp 1040 ------- 5 4.0 10.4 6 18
- 0.65536 9 10 tcp 1040 ------- 5 4.0 10.4 5 17
- 0.672 9 10 tcp 1040 ------- 5 4.0 10.4 6 18
r 0.680992 8 9 tcp 1040 ------- 4 3.0 10.3 1 13
+ 0.680992 9 10 tcp 1040 ------- 4 3.0 10.3 1 13
- 0.68864 9 10 tcp 1040 ------- 4 3.0 10.3 1 13
r 0.697632 8 9 tcp 1040 ------- 4 3.0 10.3 2 14
+ 0.697632 9 10 tcp 1040 ------- 4 3.0 10.3 2 14
- 0.70528 9 10 tcp 1040 ------- 4 3.0 10.3 2 14
r 0.723904 10 9 ack 40 ------- 1 10.0 0.0 0 19
+ 0.723904 9 8 ack 40 ------- 1 10.0 0.0 0 19
- 0.723904 9 8 ack 40 ------- 1 10.0 0.0 0 19
r 0.723904 9 8 ack 40 ------- 2 10.1 1.0 0 12
+ 0.723904 8 7 ack 40 ------- 2 10.1 1.0 0 12
- 0.723904 8 7 ack 40 ------- 2 10.1 1.0 0 12
r 0.723904 8 7 ack 40 ------- 3 10.2 2.0 0 9
+ 0.723904 7 2 ack 40 ------- 3 10.2 2.0 0 9
- 0.723904 7 2 ack 40 ------- 3 10.2 2.0 0 9
r 0.73872 9 10 tcp 1040 ------- 5 4.0 10.4 3 15
+ 0.73872 10 9 ack 40 ------- 5 10.4 4.0 3 20
- 0.73872 10 9 ack 40 ------- 5 10.4 4.0 3 20
r 0.743968 7 2 ack 40 ------- 3 10.2 2.0 0 9
+ 0.743968 2 7 tcp 1040 ------- 3 2.0 10.2 1 21
- 0.743968 2 7 tcp 1040 ------- 3 2.0 10.2 1 21
+ 0.743968 2 7 tcp 1040 ------- 3 2.0 10.2 2 22
- 0.745632 2 7 tcp 1040 ------- 3 2.0 10.2 2 22
r 0.75536 9 10 tcp 1040 ------- 5 4.0 10.4 4 16
+ 0.75536 10 9 ack 40 ------- 5 10.4 4.0 4 23
- 0.75536 10 9 ack 40 ------- 5 10.4 4.0 4 23
r 0.765632 2 7 tcp 1040 ------- 3 2.0 10.2 1 21
+ 0.765632 7 8 tcp 1040 ------- 3 2.0 10.2 1 21
- 0.765632 7 8 tcp 1040 ------- 3 2.0 10.2 1 21
r 0.767296 2 7 tcp 1040 ------- 3 2.0 10.2 2 22
+ 0.767296 7 8 tcp 1040 ------- 3 2.0 10.2 2 22
r 0.772 9 10 tcp 1040 ------- 5 4.0 10.4 5 17
+ 0.772 10 9 ack 40 ------- 5 10.4 4.0 5 24
- 0.772 10 9 ack 40 ------- 5 10.4 4.0 5 24
- 0.782272 7 8 tcp 1040 ------- 3 2.0 10.2 2 22
r 0.78864 9 10 tcp 1040 ------- 5 4.0 10.4 6 18
+ 0.78864 10 9 ack 40 ------- 5 10.4 4.0 6 25
- 0.78864 10 9 ack 40 ------- 5 10.4 4.0 6 25
r 0.80528 9 10 tcp 1040 ------- 4 3.0 10.3 1 13
+ 0.80528 10 9 ack 40 ------- 4 10.3 3.0 1 26
- 0.80528 10 9 ack 40 ------- 4 10.3 3.0 1 26
r 0.82192 9 10 tcp 1040 ------- 4 3.0 10.3 2 14
+ 0.82192 10 9 ack 40 ------- 4 10.3 3.0 2 27
- 0.82192 10 9 ack 40 ------- 4 10.3 3.0 2 27
r 0.824544 9 8 ack 40 ------- 1 10.0 0.0 0 19
+ 0.824544 8 7 ack 40 ------- 1 10.0 0.0 0 19
- 0.824544 8 7 ack 40 ------- 1 10.0 0.0 0 19
r 0.824544 8 7 ack 40 ------- 2 10.1 1.0 0 12
+ 0.824544 7 6 ack 40 ------- 2 10.1 1.0 0 12
- 0.824544 7 6 ack 40 ------- 2 10.1 1.0 0 12
r 0.83936 10 9 ack 40 ------- 5 10.4 4.0 3 20
+ 0.83936 9 4 ack 40 ------- 5 10.4 4.0 3 20
- 0.83936 9 4 ack 40 ------- 5 10.4 4.0 3 20
r 0.856 10 9 ack 40 ------- 5 10.4 4.0 4 23
+ 0.856 9 4 ack 40 ------- 5 10.4 4.0 4 23
- 0.856 9 4 ack 40 ------- 5 10.4 4.0 4 23
r 0.859424 9 4 ack 40 ------- 5 10.4 4.0 3 20
+ 0.859424 4 9 tcp 1040 ------- 5 4.0 10.4 7 28
- 0.859424 4 9 tcp 1040 ------- 5 4.0 10.4 7 28
+ 0.859424 4 9 tcp 1040 ------- 5 4.0 10.4 8 29
- 0.861088 4 9 tcp 1040 ------- 5 4.0 10.4 8 29
r 0.87264 10 9 ack 40 ------- 5 10.4 4.0 5 24
+ 0.87264 9 4 ack 40 ------- 5 10.4 4.0 5 24
- 0.87264 9 4 ack 40 ------- 5 10.4 4.0 5 24
r 0.876064 9 4 ack 40 ------- 5 10.4 4.0 4 23
+ 0.876064 4 9 tcp 1040 ------- 5 4.0 10.4 9 30
- 0.876064 4 9 tcp 1040 ------- 5 4.0 10.4 9 30
+ 0.876064 4 9 tcp 1040 ------- 5 4.0 10.4 10 31
- 0.877728 4 9 tcp 1040 ------- 5 4.0 10.4 10 31
r 0.881088 4 9 tcp 1040 ------- 5 4.0 10.4 7 28
+ 0.881088 9 10 tcp 1040 ------- 5 4.0 10.4 7 28
- 0.881088 9 10 tcp 1040 ------- 5 4.0 10.4 7 28
r 0.882272 7 8 tcp 1040 ------- 3 2.0 10.2 1 21
+ 0.882272 8 9 tcp 1040 ------- 3 2.0 10.2 1 21
- 0.882272 8 9 tcp 1040 ------- 3 2.0 10.2 1 21
r 0.882752 4 9 tcp 1040 ------- 5 4.0 10.4 8 29
+ 0.882752 9 10 tcp 1040 ------- 5 4.0 10.4 8 29
r 0.88928 10 9 ack 40 ------- 5 10.4 4.0 6 25
+ 0.88928 9 4 ack 40 ------- 5 10.4 4.0 6 25
- 0.88928 9 4 ack 40 ------- 5 10.4 4.0 6 25
r 0.892704 9 4 ack 40 ------- 5 10.4 4.0 5 24
+ 0.892704 4 9 tcp 1040 ------- 5 4.0 10.4 11 32
- 0.892704 4 9 tcp 1040 ------- 5 4.0 10.4 11 32
+ 0.892704 4 9 tcp 1040 ------- 5 4.0 10.4 12 33
- 0.894368 4 9 tcp 1040 ------- 5 4.0 10.4 12 33
r 0.897728 4 9 tcp 1040 ------- 5 4.0 10.4 9 30
+ 0.897728 9 10 tcp 1040 ------- 5 4.0 10.4 9 30
- 0.897728 9 10 tcp 1040 ------- 5 4.0 10.4 8 29
r 0.898912 7 8 tcp 1040 ------- 3 2.0 10.2 2 22
+ 0.898912 8 9 tcp 1040 ------- 3 2.0 10.2 2 22
- 0.898912 8 9 tcp 1040 ------- 3 2.0 10.2 2 22
r 0.899392 4 9 tcp 1040 ------- 5 4.0 10.4 10 31
+ 0.899392 9 10 tcp 1040 ------- 5 4.0 10.4 10 31
r 0.90592 10 9 ack 40 ------- 4 10.3 3.0 1 26
+ 0.90592 9 8 ack 40 ------- 4 10.3 3.0 1 26
- 0.90592 9 8 ack 40 ------- 4 10.3 3.0 1 26
r 0.909344 9 4 ack 40 ------- 5 10.4 4.0 6 25
+ 0.909344 4 9 tcp 1040 ------- 5 4.0 10.4 13 34
- 0.909344 4 9 tcp 1040 ------- 5 4.0 10.4 13 34
+ 0.909344 4 9 tcp 1040 ------- 5 4.0 10.4 14 35
- 0.911008 4 9 tcp 1040 ------- 5 4.0 10.4 14 35
r 0.914368 4 9 tcp 1040 ------- 5 4.0 10.4 11 32
+ 0.914368 9 10 tcp 1040 ------- 5 4.0 10.4 11 32
- 0.914368 9 10 tcp 1040 ------- 5 4.0 10.4 9 30
r 0.916032 4 9 tcp 1040 ------- 5 4.0 10.4 12 33
+ 0.916032 9 10 tcp 1040 ------- 5 4.0 10.4 12 33
r 0.92256 10 9 ack 40 ------- 4 10.3 3.0 2 27
+ 0.92256 9 8 ack 40 ------- 4 10.3 3.0 2 27
- 0.92256 9 8 ack 40 ------- 4 10.3 3.0 2 27
r 0.925184 8 7 ack 40 ------- 1 10.0 0.0 0 19
+ 0.925184 7 6 ack 40 ------- 1 10.0 0.0 0 19
- 0.925184 7 6 ack 40 ------- 1 10.0 0.0 0 19
r 0.925184 7 6 ack 40 ------- 2 10.1 1.0 0 12
+ 0.925184 6 1 ack 40 ------- 2 10.1 1.0 0 12
- 0.925184 6 1 ack 40 ------- 2 10.1 1.0 0 12
r 0.931008 4 9 tcp 1040 ------- 5 4.0 10.4 13 34
+ 0.931008 9 10 tcp 1040 ------- 5 4.0 10.4 13 34
- 0.931008 9 10 tcp 1040 ------- 5 4.0 10.4 10 31
r 0.932672 4 9 tcp 1040 ------- 5 4.0 10.4 14 35
+ 0.932672 9 10 tcp 1040 ------- 5 4.0 10.4 14 35
r 0.945248 6 1 ack 40 ------- 2 10.1 1.0 0 12
+ 0.945248 1 6 tcp 1040 ------- 2 1.0 10.1 1 36
- 0.945248 1 6 tcp 1040 ------- 2 1.0 10.1 1 36
+ 0.945248 1 6 tcp 1040 ------- 2 1.0 10.1 2 37
- 0.946912 1 6 tcp 1040 ------- 2 1.0 10.1 2 37
- 0.947648 9 10 tcp 1040 ------- 5 4.0 10.4 11 32
- 0.964288 9 10 tcp 1040 ------- 5 4.0 10.4 12 33
r 0.966912 1 6 tcp 1040 ------- 2 1.0 10.1 1 36
+ 0.966912 6 7 tcp 1040 ------- 2 1.0 10.1 1 36
- 0.966912 6 7 tcp 1040 ------- 2 1.0 10.1 1 36
r 0.968576 1 6 tcp 1040 ------- 2 1.0 10.1 2 37
+ 0.968576 6 7 tcp 1040 ------- 2 1.0 10.1 2 37
- 0.980928 9 10 tcp 1040 ------- 5 4.0 10.4 13 34
- 0.983552 6 7 tcp 1040 ------- 2 1.0 10.1 2 37
- 0.997568 9 10 tcp 1040 ------- 5 4.0 10.4 14 35
r 0.997728 9 10 tcp 1040 ------- 5 4.0 10.4 7 28
+ 0.997728 10 9 ack 40 ------- 5 10.4 4.0 7 38
- 0.997728 10 9 ack 40 ------- 5 10.4 4.0 7 38
r 0.998912 8 9 tcp 1040 ------- 3 2.0 10.2 1 21
+ 0.998912 9 10 tcp 1040 ------- 3 2.0 10.2 1 21
r 1.00656 9 8 ack 40 ------- 4 10.3 3.0 1 26
+ 1.00656 8 3 ack 40 ------- 4 10.3 3.0 1 26
- 1.00656 8 3 ack 40 ------- 4 10.3 3.0 1 26
- 1.014208 9 10 tcp 1040 ------- 3 2.0 10.2 1 21
r 1.014368 9 10 tcp 1040 ------- 5 4.0 10.4 8 29
+ 1.014368 10 9 ack 40 ------- 5 10.4 4.0 8 39
- 1.014368 10 9 ack 40 ------- 5 10.4 4.0 8 39
r 1.015552 8 9 tcp 1040 ------- 3 2.0 10.2 2 22
+ 1.015552 9 10 tcp 1040 ------- 3 2.0 10.2 2 22
r 1.0232 9 8 ack 40 ------- 4 10.3 3.0 2 27
+ 1.0232 8 3 ack 40 ------- 4 10.3 3.0 2 27
- 1.0232 8 3 ack 40 ------- 4 10.3 3.0 2 27
r 1.025824 7 6 ack 40 ------- 1 10.0 0.0 0 19
+ 1.025824 6 5 ack 40 ------- 1 10.0 0.0 0 19
- 1.025824 6 5 ack 40 ------- 1 10.0 0.0 0 19
r 1.026624 8 3 ack 40 ------- 4 10.3 3.0 1 26
+ 1.026624 3 8 tcp 1040 ------- 4 3.0 10.3 3 40
- 1.026624 3 8 tcp 1040 ------- 4 3.0 10.3 3 40
+ 1.026624 3 8 tcp 1040 ------- 4 3.0 10.3 4 41
- 1.028288 3 8 tcp 1040 ------- 4 3.0 10.3 4 41
- 1.030848 9 10 tcp 1040 ------- 3 2.0 10.2 2 22
r 1.031008 9 10 tcp 1040 ------- 5 4.0 10.4 9 30
+ 1.031008 10 9 ack 40 ------- 5 10.4 4.0 9 42
- 1.031008 10 9 ack 40 ------- 5 10.4 4.0 9 42
r 1.043264 8 3 ack 40 ------- 4 10.3 3.0 2 27
+ 1.043264 3 8 tcp 1040 ------- 4 3.0 10.3 5 43
- 1.043264 3 8 tcp 1040 ------- 4 3.0 10.3 5 43
+ 1.043264 3 8 tcp 1040 ------- 4 3.0 10.3 6 44
- 1.044928 3 8 tcp 1040 ------- 4 3.0 10.3 6 44
r 1.047648 9 10 tcp 1040 ------- 5 4.0 10.4 10 31
+ 1.047648 10 9 ack 40 ------- 5 10.4 4.0 10 45
- 1.047648 10 9 ack 40 ------- 5 10.4 4.0 10 45
r 1.048288 3 8 tcp 1040 ------- 4 3.0 10.3 3 40
+ 1.048288 8 9 tcp 1040 ------- 4 3.0 10.3 3 40
- 1.048288 8 9 tcp 1040 ------- 4 3.0 10.3 3 40
r 1.049952 3 8 tcp 1040 ------- 4 3.0 10.3 4 41
+ 1.049952 8 9 tcp 1040 ------- 4 3.0 10.3 4 41
r 1.064288 9 10 tcp 1040 ------- 5 4.0 10.4 11 32
+ 1.064288 10 9 ack 40 ------- 5 10.4 4.0 11 46
- 1.064288 10 9 ack 40 ------- 5 10.4 4.0 11 46
r 1.064928 3 8 tcp 1040 ------- 4 3.0 10.3 5 43
+ 1.064928 8 9 tcp 1040 ------- 4 3.0 10.3 5 43
- 1.064928 8 9 tcp 1040 ------- 4 3.0 10.3 4 41
r 1.066592 3 8 tcp 1040 ------- 4 3.0 10.3 6 44
+ 1.066592 8 9 tcp 1040 ------- 4 3.0 10.3 6 44
r 1.080928 9 10 tcp 1040 ------- 5 4.0 10.4 12 33
+ 1.080928 10 9 ack 40 ------- 5 10.4 4.0 12 47
- 1.080928 10 9 ack 40 ------- 5 10.4 4.0 12 47
- 1.081568 8 9 tcp 1040 ------- 4 3.0 10.3 5 43
r 1.083552 6 7 tcp 1040 ------- 2 1.0 10.1 1 36
+ 1.083552 7 8 tcp 1040 ------- 2 1.0 10.1 1 36
- 1.083552 7 8 tcp 1040 ------- 2 1.0 10.1 1 36
r 1.097568 9 10 tcp 1040 ------- 5 4.0 10.4 13 34
+ 1.097568 10 9 ack 40 ------- 5 10.4 4.0 13 48
- 1.097568 10 9 ack 40 ------- 5 10.4 4.0 13 48
- 1.098208 8 9 tcp 1040 ------- 4 3.0 10.3 6 44
r 1.098368 10 9 ack 40 ------- 5 10.4 4.0 7 38
+ 1.098368 9 4 ack 40 ------- 5 10.4 4.0 7 38
- 1.098368 9 4 ack 40 ------- 5 10.4 4.0 7 38
r 1.100192 6 7 tcp 1040 ------- 2 1.0 10.1 2 37
+ 1.100192 7 8 tcp 1040 ------- 2 1.0 10.1 2 37
- 1.100192 7 8 tcp 1040 ------- 2 1.0 10.1 2 37
r 1.114208 9 10 tcp 1040 ------- 5 4.0 10.4 14 35
+ 1.114208 10 9 ack 40 ------- 5 10.4 4.0 14 49
- 1.114208 10 9 ack 40 ------- 5 10.4 4.0 14 49
r 1.115008 10 9 ack 40 ------- 5 10.4 4.0 8 39
+ 1.115008 9 4 ack 40 ------- 5 10.4 4.0 8 39
- 1.115008 9 4 ack 40 ------- 5 10.4 4.0 8 39
r 1.118432 9 4 ack 40 ------- 5 10.4 4.0 7 38
+ 1.118432 4 9 tcp 1040 ------- 5 4.0 10.4 15 50
- 1.118432 4 9 tcp 1040 ------- 5 4.0 10.4 15 50
+ 1.118432 4 9 tcp 1040 ------- 5 4.0 10.4 16 51
- 1.120096 4 9 tcp 1040 ------- 5 4.0 10.4 16 51
r 1.126464 6 5 ack 40 ------- 1 10.0 0.0 0 19
+ 1.126464 5 0 ack 40 ------- 1 10.0 0.0 0 19
- 1.126464 5 0 ack 40 ------- 1 10.0 0.0 0 19
r 1.130848 9 10 tcp 1040 ------- 3 2.0 10.2 1 21
+ 1.130848 10 9 ack 40 ------- 3 10.2 2.0 1 52
- 1.130848 10 9 ack 40 ------- 3 10.2 2.0 1 52
r 1.131648 10 9 ack 40 ------- 5 10.4 4.0 9 42
+ 1.131648 9 4 ack 40 ------- 5 10.4 4.0 9 42
- 1.131648 9 4 ack 40 ------- 5 10.4 4.0 9 42
r 1.135072 9 4 ack 40 ------- 5 10.4 4.0 8 39
+ 1.135072 4 9 tcp 1040 ------- 5 4.0 10.4 17 53
- 1.135072 4 9 tcp 1040 ------- 5 4.0 10.4 17 53
+ 1.135072 4 9 tcp 1040 ------- 5 4.0 10.4 18 54
- 1.136736 4 9 tcp 1040 ------- 5 4.0 10.4 18 54
r 1.140096 4 9 tcp 1040 ------- 5 4.0 10.4 15 50
+ 1.140096 9 10 tcp 1040 ------- 5 4.0 10.4 15 50
- 1.140096 9 10 tcp 1040 ------- 5 4.0 10.4 15 50
r 1.14176 4 9 tcp 1040 ------- 5 4.0 10.4 16 51
+ 1.14176 9 10 tcp 1040 ------- 5 4.0 10.4 16 51
r 1.146528 5 0 ack 40 ------- 1 10.0 0.0 0 19
+ 1.146528 0 5 tcp 1040 ------- 1 0.0 10.0 1 55
- 1.146528 0 5 tcp 1040 ------- 1 0.0 10.0 1 55
+ 1.146528 0 5 tcp 1040 ------- 1 0.0 10.0 2 56
r 1.147488 9 10 tcp 1040 ------- 3 2.0 10.2 2 22
+ 1.147488 10 9 ack 40 ------- 3 10.2 2.0 2 57
- 1.147488 10 9 ack 40 ------- 3 10.2 2.0 2 57
- 1.148192 0 5 tcp 1040 ------- 1 0.0 10.0 2 56
r 1.148288 10 9 ack 40 ------- 5 10.4 4.0 10 45
+ 1.148288 9 4 ack 40 ------- 5 10.4 4.0 10 45
- 1.148288 9 4 ack 40 ------- 5 10.4 4.0 10 45
r 1.151712 9 4 ack 40 ------- 5 10.4 4.0 9 42
+ 1.151712 4 9 tcp 1040 ------- 5 4.0 10.4 19 58
- 1.151712 4 9 tcp 1040 ------- 5 4.0 10.4 19 58
+ 1.151712 4 9 tcp 1040 ------- 5 4.0 10.4 20 59
- 1.153376 4 9 tcp 1040 ------- 5 4.0 10.4 20 59
- 1.156736 9 10 tcp 1040 ------- 5 4.0 10.4 16 51
r 1.156736 4 9 tcp 1040 ------- 5 4.0 10.4 17 53
+ 1.156736 9 10 tcp 1040 ------- 5 4.0 10.4 17 53
r 1.1584 4 9 tcp 1040 ------- 5 4.0 10.4 18 54
+ 1.1584 9 10 tcp 1040 ------- 5 4.0 10.4 18 54
r 1.164928 8 9 tcp 1040 ------- 4 3.0 10.3 3 40
+ 1.164928 9 10 tcp 1040 ------- 4 3.0 10.3 3 40
r 1.164928 10 9 ack 40 ------- 5 10.4 4.0 11 46
+ 1.164928 9 4 ack 40 ------- 5 10.4 4.0 11 46
- 1.164928 9 4 ack 40 ------- 5 10.4 4.0 11 46
r 1.168192 0 5 tcp 1040 ------- 1 0.0 10.0 1 55
+ 1.168192 5 6 tcp 1040 ------- 1 0.0 10.0 1 55
- 1.168192 5 6 tcp 1040 ------- 1 0.0 10.0 1 55
r 1.168352 9 4 ack 40 ------- 5 10.4 4.0 10 45
+ 1.168352 4 9 tcp 1040 ------- 5 4.0 10.4 21 60
- 1.168352 4 9 tcp 1040 ------- 5 4.0 10.4 21 60
+ 1.168352 4 9 tcp 1040 ------- 5 4.0 10.4 22 61
r 1.169856 0 5 tcp 1040 ------- 1 0.0 10.0 2 56
+ 1.169856 5 6 tcp 1040 ------- 1 0.0 10.0 2 56
- 1.170016 4 9 tcp 1040 ------- 5 4.0 10.4 22 61
- 1.173376 9 10 tcp 1040 ------- 5 4.0 10.4 17 53
r 1.173376 4 9 tcp 1040 ------- 5 4.0 10.4 19 58
+ 1.173376 9 10 tcp 1040 ------- 5 4.0 10.4 19 58
r 1.17504 4 9 tcp 1040 ------- 5 4.0 10.4 20 59
+ 1.17504 9 10 tcp 1040 ------- 5 4.0 10.4 20 59
r 1.181568 8 9 tcp 1040 ------- 4 3.0 10.3 4 41
+ 1.181568 9 10 tcp 1040 ------- 4 3.0 10.3 4 41
r 1.181568 10 9 ack 40 ------- 5 10.4 4.0 12 47
+ 1.181568 9 4 ack 40 ------- 5 10.4 4.0 12 47
- 1.181568 9 4 ack 40 ------- 5 10.4 4.0 12 47
- 1.184832 5 6 tcp 1040 ------- 1 0.0 10.0 2 56
r 1.184992 9 4 ack 40 ------- 5 10.4 4.0 11 46
+ 1.184992 4 9 tcp 1040 ------- 5 4.0 10.4 23 62
- 1.184992 4 9 tcp 1040 ------- 5 4.0 10.4 23 62
+ 1.184992 4 9 tcp 1040 ------- 5 4.0 10.4 24 63
- 1.186656 4 9 tcp 1040 ------- 5 4.0 10.4 24 63
- 1.190016 9 10 tcp 1040 ------- 5 4.0 10.4 18 54
r 1.190016 4 9 tcp 1040 ------- 5 4.0 10.4 21 60
+ 1.190016 9 10 tcp 1040 ------- 5 4.0 10.4 21 60
r 1.19168 4 9 tcp 1040 ------- 5 4.0 10.4 22 61
+ 1.19168 9 10 tcp 1040 ------- 5 4.0 10.4 22 61
r 1.198208 8 9 tcp 1040 ------- 4 3.0 10.3 5 43
+ 1.198208 9 10 tcp 1040 ------- 4 3.0 10.3 5 43
r 1.198208 10 9 ack 40 ------- 5 10.4 4.0 13 48
+ 1.198208 9 4 ack 40 ------- 5 10.4 4.0 13 48
- 1.198208 9 4 ack 40 ------- 5 10.4 4.0 13 48
r 1.200192 7 8 tcp 1040 ------- 2 1.0 10.1 1 36
+ 1.200192 8 9 tcp 1040 ------- 2 1.0 10.1 1 36
- 1.200192 8 9 tcp 1040 ------- 2 1.0 10.1 1 36
r 1.201632 9 4 ack 40 ------- 5 10.4 4.0 12 47
+ 1.201632 4 9 tcp 1040 ------- 5 4.0 10.4 25 64
- 1.201632 4 9 tcp 1040 ------- 5 4.0 10.4 25 64
+ 1.201632 4 9 tcp 1040 ------- 5 4.0 10.4 26 65
- 1.203296 4 9 tcp 1040 ------- 5 4.0 10.4 26 65
- 1.206656 9 10 tcp 1040 ------- 4 3.0 10.3 3 40
r 1.206656 4 9 tcp 1040 ------- 5 4.0 10.4 23 62
+ 1.206656 9 10 tcp 1040 ------- 5 4.0 10.4 23 62
r 1.20832 4 9 tcp 1040 ------- 5 4.0 10.4 24 63
+ 1.20832 9 10 tcp 1040 ------- 5 4.0 10.4 24 63
r 1.214848 8 9 tcp 1040 ------- 4 3.0 10.3 6 44
+ 1.214848 9 10 tcp 1040 ------- 4 3.0 10.3 6 44
r 1.214848 10 9 ack 40 ------- 5 10.4 4.0 14 49
+ 1.214848 9 4 ack 40 ------- 5 10.4 4.0 14 49
- 1.214848 9 4 ack 40 ------- 5 10.4 4.0 14 49
r 1.216832 7 8 tcp 1040 ------- 2 1.0 10.1 2 37
+ 1.216832 8 9 tcp 1040 ------- 2 1.0 10.1 2 37
- 1.216832 8 9 tcp 1040 ------- 2 1.0 10.1 2 37
r 1.218272 9 4 ack 40 ------- 5 10.4 4.0 13 48
+ 1.218272 4 9 tcp 1040 ------- 5 4.0 10.4 27 66
- 1.218272 4 9 tcp 1040 ------- 5 4.0 10.4 27 66
+ 1.218272 4 9 tcp 1040 ------- 5 4.0 10.4 28 67
- 1.219936 4 9 tcp 1040 ------- 5 4.0 10.4 28 67
- 1.223296 9 10 tcp 1040 ------- 5 4.0 10.4 19 58
r 1.223296 4 9 tcp 1040 ------- 5 4.0 10.4 25 64
+ 1.223296 9 10 tcp 1040 ------- 5 4.0 10.4 25 64
r 1.22496 4 9 tcp 1040 ------- 5 4.0 10.4 26 65
+ 1.22496 9 10 tcp 1040 ------- 5 4.0 10.4 26 65
r 1.231488 10 9 ack 40 ------- 3 10.2 2.0 1 52
+ 1.231488 9 8 ack 40 ------- 3 10.2 2.0 1 52
- 1.231488 9 8 ack 40 ------- 3 10.2 2.0 1 52
r 1.234912 9 4 ack 40 ------- 5 10.4 4.0 14 49
+ 1.234912 4 9 tcp 1040 ------- 5 4.0 10.4 29 68
- 1.234912 4 9 tcp 1040 ------- 5 4.0 10.4 29 68
+ 1.234912 4 9 tcp 1040 ------- 5 4.0 10.4 30 69
- 1.236576 4 9 tcp 1040 ------- 5 4.0 10.4 30 69
- 1.239936 9 10 tcp 1040 ------- 5 4.0 10.4 20 59
r 1.239936 4 9 tcp 1040 ------- 5 4.0 10.4 27 66
+ 1.239936 9 10 tcp 1040 ------- 5 4.0 10.4 27 66
r 1.2416 4 9 tcp 1040 ------- 5 4.0 10.4 28 67
+ 1.2416 9 10 tcp 1040 ------- 5 4.0 10.4 28 67
r 1.248128 10 9 ack 40 ------- 3 10.2 2.0 2 57
+ 1.248128 9 8 ack 40 ------- 3 10.2 2.0 2 57
- 1.248128 9 8 ack 40 ------- 3 10.2 2.0 2 57
- 1.256576 9 10 tcp 1040 ------- 4 3.0 10.3 4 41
r 1.256576 4 9 tcp 1040 ------- 5 4.0 10.4 29 68
+ 1.256576 9 10 tcp 1040 ------- 5 4.0 10.4 29 68
r 1.256736 9 10 tcp 1040 ------- 5 4.0 10.4 15 50
+ 1.256736 10 9 ack 40 ------- 5 10.4 4.0 15 70
- 1.256736 10 9 ack 40 ------- 5 10.4 4.0 15 70
r 1.25824 4 9 tcp 1040 ------- 5 4.0 10.4 30 69
+ 1.25824 9 10 tcp 1040 ------- 5 4.0 10.4 30 69
- 1.273216 9 10 tcp 1040 ------- 5 4.0 10.4 21 60
r 1.273376 9 10 tcp 1040 ------- 5 4.0 10.4 16 51
+ 1.273376 10 9 ack 40 ------- 5 10.4 4.0 16 71
- 1.273376 10 9 ack 40 ------- 5 10.4 4.0 16 71
r 1.284832 5 6 tcp 1040 ------- 1 0.0 10.0 1 55
+ 1.284832 6 7 tcp 1040 ------- 1 0.0 10.0 1 55
- 1.284832 6 7 tcp 1040 ------- 1 0.0 10.0 1 55
- 1.289856 9 10 tcp 1040 ------- 5 4.0 10.4 22 61
r 1.290016 9 10 tcp 1040 ------- 5 4.0 10.4 17 53
+ 1.290016 10 9 ack 40 ------- 5 10.4 4.0 17 72
- 1.290016 10 9 ack 40 ------- 5 10.4 4.0 17 72
r 1.301472 5 6 tcp 1040 ------- 1 0.0 10.0 2 56
+ 1.301472 6 7 tcp 1040 ------- 1 0.0 10.0 2 56
- 1.301472 6 7 tcp 1040 ------- 1 0.0 10.0 2 56
- 1.306496 9 10 tcp 1040 ------- 4 3.0 10.3 5 43
r 1.306656 9 10 tcp 1040 ------- 5 4.0 10.4 18 54
+ 1.306656 10 9 ack 40 ------- 5 10.4 4.0 18 73
- 1.306656 10 9 ack 40 ------- 5 10.4 4.0 18 73
r 1.316832 8 9 tcp 1040 ------- 2 1.0 10.1 1 36
+ 1.316832 9 10 tcp 1040 ------- 2 1.0 10.1 1 36
- 1.323136 9 10 tcp 1040 ------- 5 4.0 10.4 23 62
r 1.323296 9 10 tcp 1040 ------- 4 3.0 10.3 3 40
+ 1.323296 10 9 ack 40 ------- 4 10.3 3.0 3 74
- 1.323296 10 9 ack 40 ------- 4 10.3 3.0 3 74
r 1.332128 9 8 ack 40 ------- 3 10.2 2.0 1 52
+ 1.332128 8 7 ack 40 ------- 3 10.2 2.0 1 52
- 1.332128 8 7 ack 40 ------- 3 10.2 2.0 1 52
r 1.333472 8 9 tcp 1040 ------- 2 1.0 10.1 2 37
+ 1.333472 9 10 tcp 1040 ------- 2 1.0 10.1 2 37
- 1.339776 9 10 tcp 1040 ------- 5 4.0 10.4 24 63
r 1.339936 9 10 tcp 1040 ------- 5 4.0 10.4 19 58
+ 1.339936 10 9 ack 40 ------- 5 10.4 4.0 19 75
- 1.339936 10 9 ack 40 ------- 5 10.4 4.0 19 75
r 1.348768 9 8 ack 40 ------- 3 10.2 2.0 2 57
+ 1.348768 8 7 ack 40 ------- 3 10.2 2.0 2 57
- 1.348768 8 7 ack 40 ------- 3 10.2 2.0 2 57
- 1.356416 9 10 tcp 1040 ------- 4 3.0 10.3 6 44
r 1.356576 9 10 tcp 1040 ------- 5 4.0 10.4 20 59
+ 1.356576 10 9 ack 40 ------- 5 10.4 4.0 20 76
- 1.356576 10 9 ack 40 ------- 5 10.4 4.0 20 76
r 1.357376 10 9 ack 40 ------- 5 10.4 4.0 15 70
+ 1.357376 9 4 ack 40 ------- 5 10.4 4.0 15 70
- 1.357376 9 4 ack 40 ------- 5 10.4 4.0 15 70
- 1.373056 9 10 tcp 1040 ------- 5 4.0 10.4 25 64
r 1.373216 9 10 tcp 1040 ------- 4 3.0 10.3 4 41
+ 1.373216 10 9 ack 40 ------- 4 10.3 3.0 4 77
- 1.373216 10 9 ack 40 ------- 4 10.3 3.0 4 77
r 1.374016 10 9 ack 40 ------- 5 10.4 4.0 16 71
+ 1.374016 9 4 ack 40 ------- 5 10.4 4.0 16 71
- 1.374016 9 4 ack 40 ------- 5 10.4 4.0 16 71
r 1.37744 9 4 ack 40 ------- 5 10.4 4.0 15 70
+ 1.37744 4 9 tcp 1040 ------- 5 4.0 10.4 31 78
- 1.37744 4 9 tcp 1040 ------- 5 4.0 10.4 31 78
+ 1.37744 4 9 tcp 1040 ------- 5 4.0 10.4 32 79
- 1.379104 4 9 tcp 1040 ------- 5 4.0 10.4 32 79
- 1.389696 9 10 tcp 1040 ------- 5 4.0 10.4 26 65
r 1.389856 9 10 tcp 1040 ------- 5 4.0 10.4 21 60
+ 1.389856 10 9 ack 40 ------- 5 10.4 4.0 21 80
- 1.389856 10 9 ack 40 ------- 5 10.4 4.0 21 80
r 1.390656 10 9 ack 40 ------- 5 10.4 4.0 17 72
+ 1.390656 9 4 ack 40 ------- 5 10.4 4.0 17 72
- 1.390656 9 4 ack 40 ------- 5 10.4 4.0 17 72
r 1.39408 9 4 ack 40 ------- 5 10.4 4.0 16 71
+ 1.39408 4 9 tcp 1040 ------- 5 4.0 10.4 33 81
- 1.39408 4 9 tcp 1040 ------- 5 4.0 10.4 33 81
+ 1.39408 4 9 tcp 1040 ------- 5 4.0 10.4 34 82
- 1.395744 4 9 tcp 1040 ------- 5 4.0 10.4 34 82
r 1.399104 4 9 tcp 1040 ------- 5 4.0 10.4 31 78
+ 1.399104 9 10 tcp 1040 ------- 5 4.0 10.4 31 78
r 1.400768 4 9 tcp 1040 ------- 5 4.0 10.4 32 79
+ 1.400768 9 10 tcp 1040 ------- 5 4.0 10.4 32 79
r 1.401472 6 7 tcp 1040 ------- 1 0.0 10.0 1 55
+ 1.401472 7 8 tcp 1040 ------- 1 0.0 10.0 1 55
- 1.401472 7 8 tcp 1040 ------- 1 0.0 10.0 1 55
- 1.406336 9 10 tcp 1040 ------- 5 4.0 10.4 27 66
r 1.406496 9 10 tcp 1040 ------- 5 4.0 10.4 22 61
+ 1.406496 10 9 ack 40 ------- 5 10.4 4.0 22 83
- 1.406496 10 9 ack 40 ------- 5 10.4 4.0 22 83
r 1.407296 10 9 ack 40 ------- 5 10.4 4.0 18 73
+ 1.407296 9 4 ack 40 ------- 5 10.4 4.0 18 73
- 1.407296 9 4 ack 40 ------- 5 10.4 4.0 18 73
r 1.41072 9 4 ack 40 ------- 5 10.4 4.0 17 72
+ 1.41072 4 9 tcp 1040 ------- 5 4.0 10.4 35 84
- 1.41072 4 9 tcp 1040 ------- 5 4.0 10.4 35 84
+ 1.41072 4 9 tcp 1040 ------- 5 4.0 10.4 36 85
- 1.412384 4 9 tcp 1040 ------- 5 4.0 10.4 36 85
r 1.415744 4 9 tcp 1040 ------- 5 4.0 10.4 33 81
+ 1.415744 9 10 tcp 1040 ------- 5 4.0 10.4 33 81
r 1.417408 4 9 tcp 1040 ------- 5 4.0 10.4 34 82
+ 1.417408 9 10 tcp 1040 ------- 5 4.0 10.4 34 82
r 1.418112 6 7 tcp 1040 ------- 1 0.0 10.0 2 56
+ 1.418112 7 8 tcp 1040 ------- 1 0.0 10.0 2 56
- 1.418112 7 8 tcp 1040 ------- 1 0.0 10.0 2 56
- 1.422976 9 10 tcp 1040 ------- 5 4.0 10.4 28 67
r 1.423136 9 10 tcp 1040 ------- 4 3.0 10.3 5 43
+ 1.423136 10 9 ack 40 ------- 4 10.3 3.0 5 86
- 1.423136 10 9 ack 40 ------- 4 10.3 3.0 5 86
r 1.423936 10 9 ack 40 ------- 4 10.3 3.0 3 74
+ 1.423936 9 8 ack 40 ------- 4 10.3 3.0 3 74
- 1.423936 9 8 ack 40 ------- 4 10.3 3.0 3 74
r 1.42736 9 4 ack 40 ------- 5 10.4 4.0 18 73
+ 1.42736 4 9 tcp 1040 ------- 5 4.0 10.4 37 87
- 1.42736 4 9 tcp 1040 ------- 5 4.0 10.4 37 87
+ 1.42736 4 9 tcp 1040 ------- 5 4.0 10.4 38 88
- 1.429024 4 9 tcp 1040 ------- 5 4.0 10.4 38 88
r 1.432384 4 9 tcp 1040 ------- 5 4.0 10.4 35 84
+ 1.432384 9 10 tcp 1040 ------- 5 4.0 10.4 35 84
r 1.432768 8 7 ack 40 ------- 3 10.2 2.0 1 52
+ 1.432768 7 2 ack 40 ------- 3 10.2 2.0 1 52
- 1.432768 7 2 ack 40 ------- 3 10.2 2.0 1 52
r 1.434048 4 9 tcp 1040 ------- 5 4.0 10.4 36 85
+ 1.434048 9 10 tcp 1040 ------- 5 4.0 10.4 36 85
- 1.439616 9 10 tcp 1040 ------- 5 4.0 10.4 29 68
r 1.439776 9 10 tcp 1040 ------- 5 4.0 10.4 23 62
+ 1.439776 10 9 ack 40 ------- 5 10.4 4.0 23 89
- 1.439776 10 9 ack 40 ------- 5 10.4 4.0 23 89
r 1.440576 10 9 ack 40 ------- 5 10.4 4.0 19 75
+ 1.440576 9 4 ack 40 ------- 5 10.4 4.0 19 75
- 1.440576 9 4 ack 40 ------- 5 10.4 4.0 19 75
r 1.449024 4 9 tcp 1040 ------- 5 4.0 10.4 37 87
+ 1.449024 9 10 tcp 1040 ------- 5 4.0 10.4 37 87
r 1.449408 8 7 ack 40 ------- 3 10.2 2.0 2 57
+ 1.449408 7 2 ack 40 ------- 3 10.2 2.0 2 57
- 1.449408 7 2 ack 40 ------- 3 10.2 2.0 2 57
r 1.450688 4 9 tcp 1040 ------- 5 4.0 10.4 38 88
+ 1.450688 9 10 tcp 1040 ------- 5 4.0 10.4 38 88
r 1.452832 7 2 ack 40 ------- 3 10.2 2.0 1 52
+ 1.452832 2 7 tcp 1040 ------- 3 2.0 10.2 3 90
- 1.452832 2 7 tcp 1040 ------- 3 2.0 10.2 3 90
+ 1.452832 2 7 tcp 1040 ------- 3 2.0 10.2 4 91
- 1.454496 2 7 tcp 1040 ------- 3 2.0 10.2 4 91
- 1.456256 9 10 tcp 1040 ------- 5 4.0 10.4 30 69
r 1.456416 9 10 tcp 1040 ------- 5 4.0 10.4 24 63
+ 1.456416 10 9 ack 40 ------- 5 10.4 4.0 24 92
- 1.456416 10 9 ack 40 ------- 5 10.4 4.0 24 92
r 1.457216 10 9 ack 40 ------- 5 10.4 4.0 20 76
+ 1.457216 9 4 ack 40 ------- 5 10.4 4.0 20 76
- 1.457216 9 4 ack 40 ------- 5 10.4 4.0 20 76
r 1.46064 9 4 ack 40 ------- 5 10.4 4.0 19 75
+ 1.46064 4 9 tcp 1040 ------- 5 4.0 10.4 39 93